var allData = [
  {},
  {
    "atomicNumber": "1",
    "symbol": "H",
    "name": "Водород",
    "wikiLink": "/wiki/%D0%92%D0%BE%D0%B4%D0%BE%D1%80%D0%BE%D0%B4",
    "yearDiscovered": 1766,
    "meltingPoint": -259,
    "boilingPoint": -252
  },
  {
    "atomicNumber": "2",
    "symbol": "He",
    "name": "Гелий",
    "wikiLink": "/wiki/%D0%93%D0%B5%D0%BB%D0%B8%D0%B9",
    "yearDiscovered": 1895,
    "meltingPoint": -272,
    "boilingPoint": -268
  },
  {
    "atomicNumber": "3",
    "symbol": "Li",
    "name": "Литий",
    "wikiLink": "/wiki/%D0%9B%D0%B8%D1%82%D0%B8%D0%B9",
    "yearDiscovered": 1817,
    "meltingPoint": 180,
    "boilingPoint": 1317
  },
  {
    "atomicNumber": "4",
    "symbol": "Be",
    "name": "Бериллий",
    "wikiLink": "/wiki/%D0%91%D0%B5%D1%80%D0%B8%D0%BB%D0%BB%D0%B8%D0%B9",
    "yearDiscovered": 1797,
    "meltingPoint": 1278,
    "boilingPoint": 2970
  },
  {
    "atomicNumber": "5",
    "symbol": "B",
    "name": "Бор",
    "wikiLink": "/wiki/%D0%91%D0%BE%D1%80_(%D1%8D%D0%BB%D0%B5%D0%BC%D0%B5%D0%BD%D1%82)",
    "yearDiscovered": 1808,
    "meltingPoint": 2300,
    "boilingPoint": 2550
  },
  {
    "atomicNumber": "6",
    "symbol": "C",
    "name": "Углерод",
    "wikiLink": "/wiki/%D0%A3%D0%B3%D0%BB%D0%B5%D1%80%D0%BE%D0%B4",
    "yearDiscovered": 0,
    "meltingPoint": 3550,
    "boilingPoint": 4827
  },
  {
    "atomicNumber": "7",
    "symbol": "N",
    "name": "Азот",
    "wikiLink": "/wiki/%D0%90%D0%B7%D0%BE%D1%82",
    "yearDiscovered": 1772,
    "meltingPoint": -209,
    "boilingPoint": -195
  },
  {
    "atomicNumber": "8",
    "symbol": "O",
    "name": "Кислород",
    "wikiLink": "/wiki/%D0%9A%D0%B8%D1%81%D0%BB%D0%BE%D1%80%D0%BE%D0%B4",
    "yearDiscovered": 1774,
    "meltingPoint": -218,
    "boilingPoint": -182
  },
  {
    "atomicNumber": "9",
    "symbol": "F",
    "name": "Фтор",
    "wikiLink": "/wiki/%D0%A4%D1%82%D0%BE%D1%80",
    "yearDiscovered": 1886,
    "meltingPoint": -219,
    "boilingPoint": -188
  },
  {
    "atomicNumber": "10",
    "symbol": "Ne",
    "name": "Неон",
    "wikiLink": "/wiki/%D0%9D%D0%B5%D0%BE%D0%BD",
    "yearDiscovered": 1898,
    "meltingPoint": -248,
    "boilingPoint": -246
  },
  {
    "atomicNumber": "11",
    "symbol": "Na",
    "name": "Натрий",
    "wikiLink": "/wiki/%D0%9D%D0%B0%D1%82%D1%80%D0%B8%D0%B9",
    "yearDiscovered": 1807,
    "meltingPoint": 97,
    "boilingPoint": 892
  },
  {
    "atomicNumber": "12",
    "symbol": "Mg",
    "name": "Магний",
    "wikiLink": "/wiki/%D0%9C%D0%B0%D0%B3%D0%BD%D0%B8%D0%B9",
    "yearDiscovered": 1808,
    "meltingPoint": 648,
    "boilingPoint": 1107
  },
  {
    "atomicNumber": "13",
    "symbol": "Al",
    "name": "Алюминий",
    "wikiLink": "/wiki/%D0%90%D0%BB%D1%8E%D0%BC%D0%B8%D0%BD%D0%B8%D0%B9",
    "yearDiscovered": 1825,
    "meltingPoint": 660,
    "boilingPoint": 2467
  },
  {
    "atomicNumber": "14",
    "symbol": "Si",
    "name": "Кремний",
    "wikiLink": "/wiki/%D0%9A%D1%80%D0%B5%D0%BC%D0%BD%D0%B8%D0%B9",
    "yearDiscovered": 1824,
    "meltingPoint": 1410,
    "boilingPoint": 2355
  },
  {
    "atomicNumber": "15",
    "symbol": "P",
    "name": "Фосфор",
    "wikiLink": "/wiki/%D0%A4%D0%BE%D1%81%D1%84%D0%BE%D1%80",
    "yearDiscovered": 1669,
    "meltingPoint": 44,
    "boilingPoint": 280
  },
  {
    "atomicNumber": "16",
    "symbol": "S",
    "name": "Сера",
    "wikiLink": "/wiki/%D0%A1%D0%B5%D1%80%D0%B0",
    "yearDiscovered": 0,
    "meltingPoint": 113,
    "boilingPoint": 444
  },
  {
    "atomicNumber": "17",
    "symbol": "Cl",
    "name": "Хлор",
    "wikiLink": "/wiki/%D0%A5%D0%BB%D0%BE%D1%80",
    "yearDiscovered": 1774,
    "meltingPoint": -101,
    "boilingPoint": -34
  },
  {
    "atomicNumber": "18",
    "symbol": "Ar",
    "name": "Аргон",
    "wikiLink": "/wiki/%D0%90%D1%80%D0%B3%D0%BE%D0%BD",
    "yearDiscovered": 1894,
    "meltingPoint": -189,
    "boilingPoint": -185
  },
  {
    "atomicNumber": "19",
    "symbol": "K",
    "name": "Калий",
    "wikiLink": "/wiki/%D0%9A%D0%B0%D0%BB%D0%B8%D0%B9",
    "yearDiscovered": 1807,
    "meltingPoint": 63,
    "boilingPoint": 774
  },
  {
    "atomicNumber": "20",
    "symbol": "Ca",
    "name": "Кальций",
    "wikiLink": "/wiki/%D0%9A%D0%B0%D0%BB%D1%8C%D1%86%D0%B8%D0%B9",
    "yearDiscovered": 1808,
    "meltingPoint": 839,
    "boilingPoint": 1487
  },
  {
    "atomicNumber": "21",
    "symbol": "Sc",
    "name": "Скандий",
    "wikiLink": "/wiki/%D0%A1%D0%BA%D0%B0%D0%BD%D0%B4%D0%B8%D0%B9",
    "yearDiscovered": 1879,
    "meltingPoint": 1539,
    "boilingPoint": 2832
  },
  {
    "atomicNumber": "22",
    "symbol": "Ti",
    "name": "Титан",
    "wikiLink": "/wiki/%D0%A2%D0%B8%D1%82%D0%B0%D0%BD_(%D1%8D%D0%BB%D0%B5%D0%BC%D0%B5%D0%BD%D1%82)",
    "yearDiscovered": 1791,
    "meltingPoint": 1660,
    "boilingPoint": 3260
  },
  {
    "atomicNumber": "23",
    "symbol": "V",
    "name": "Ванадий",
    "wikiLink": "/wiki/%D0%92%D0%B0%D0%BD%D0%B0%D0%B4%D0%B8%D0%B9",
    "yearDiscovered": 1801,
    "meltingPoint": 1890,
    "boilingPoint": 3380
  },
  {
    "atomicNumber": "24",
    "symbol": "Cr",
    "name": "Хром",
    "wikiLink": "/wiki/%D0%A5%D1%80%D0%BE%D0%BC",
    "yearDiscovered": 1797,
    "meltingPoint": 1857,
    "boilingPoint": 2482
  },
  {
    "atomicNumber": "25",
    "symbol": "Mn",
    "name": "Марганец",
    "wikiLink": "/wiki/%D0%9C%D0%B0%D1%80%D0%B3%D0%B0%D0%BD%D0%B5%D1%86",
    "yearDiscovered": 1774,
    "meltingPoint": 1244,
    "boilingPoint": 2097
  },
  {
    "atomicNumber": "26",
    "symbol": "Fe",
    "name": "Железо",
    "wikiLink": "/wiki/%D0%96%D0%B5%D0%BB%D0%B5%D0%B7%D0%BE",
    "yearDiscovered": 0,
    "meltingPoint": 1535,
    "boilingPoint": 2750
  },
  {
    "atomicNumber": "27",
    "symbol": "Co",
    "name": "Кобальт",
    "wikiLink": "/wiki/%D0%9A%D0%BE%D0%B1%D0%B0%D0%BB%D1%8C%D1%82",
    "yearDiscovered": 1735,
    "meltingPoint": 1495,
    "boilingPoint": 2870
  },
  {
    "atomicNumber": "28",
    "symbol": "Ni",
    "name": "Никель",
    "wikiLink": "/wiki/%D0%9D%D0%B8%D0%BA%D0%B5%D0%BB%D1%8C",
    "yearDiscovered": 1751,
    "meltingPoint": 1453,
    "boilingPoint": 2732
  },
  {
    "atomicNumber": "29",
    "symbol": "Cu",
    "name": "Медь",
    "wikiLink": "/wiki/%D0%9C%D0%B5%D0%B4%D1%8C",
    "yearDiscovered": 0,
    "meltingPoint": 1083,
    "boilingPoint": 2595
  },
  {
    "atomicNumber": "30",
    "symbol": "Zn",
    "name": "Цинк",
    "wikiLink": "/wiki/%D0%A6%D0%B8%D0%BD%D0%BA",
    "yearDiscovered": 0,
    "meltingPoint": 419,
    "boilingPoint": 907
  },
  {
    "atomicNumber": "31",
    "symbol": "Ga",
    "name": "Галлий",
    "wikiLink": "/wiki/%D0%93%D0%B0%D0%BB%D0%BB%D0%B8%D0%B9",
    "yearDiscovered": 1875,
    "meltingPoint": 29,
    "boilingPoint": 2403
  },
  {
    "atomicNumber": "32",
    "symbol": "Ge",
    "name": "Германий",
    "wikiLink": "/wiki/%D0%93%D0%B5%D1%80%D0%BC%D0%B0%D0%BD%D0%B8%D0%B9",
    "yearDiscovered": 1886,
    "meltingPoint": 937,
    "boilingPoint": 2830
  },
  {
    "atomicNumber": "33",
    "symbol": "As",
    "name": "Мышьяк",
    "wikiLink": "/wiki/%D0%9C%D1%8B%D1%88%D1%8C%D1%8F%D0%BA",
    "yearDiscovered": 0,
    "meltingPoint": 613,
    "boilingPoint": 613
  },
  {
    "atomicNumber": "34",
    "symbol": "Se",
    "name": "Селен",
    "wikiLink": "/wiki/%D0%A1%D0%B5%D0%BB%D0%B5%D0%BD",
    "yearDiscovered": 1817,
    "meltingPoint": 217,
    "boilingPoint": 685
  },
  {
    "atomicNumber": "35",
    "symbol": "Br",
    "name": "Бром",
    "wikiLink": "/wiki/%D0%91%D1%80%D0%BE%D0%BC",
    "yearDiscovered": 1826,
    "meltingPoint": -7,
    "boilingPoint": 58
  },
  {
    "atomicNumber": "36",
    "symbol": "Kr",
    "name": "Криптон",
    "wikiLink": "/wiki/%D0%9A%D1%80%D0%B8%D0%BF%D1%82%D0%BE%D0%BD",
    "yearDiscovered": 1898,
    "meltingPoint": -156,
    "boilingPoint": -152
  },
  {
    "atomicNumber": "37",
    "symbol": "Rb",
    "name": "Рубидий",
    "wikiLink": "/wiki/%D0%A0%D1%83%D0%B1%D0%B8%D0%B4%D0%B8%D0%B9",
    "yearDiscovered": 1861,
    "meltingPoint": 39,
    "boilingPoint": 688
  },
  {
    "atomicNumber": "38",
    "symbol": "Sr",
    "name": "Стронций",
    "wikiLink": "/wiki/%D0%A1%D1%82%D1%80%D0%BE%D0%BD%D1%86%D0%B8%D0%B9",
    "yearDiscovered": 1790,
    "meltingPoint": 769,
    "boilingPoint": 1384
  },
  {
    "atomicNumber": "39",
    "symbol": "Y",
    "name": "Иттрий",
    "wikiLink": "/wiki/%D0%98%D1%82%D1%82%D1%80%D0%B8%D0%B9",
    "yearDiscovered": 1794,
    "meltingPoint": 1523,
    "boilingPoint": 3337
  },
  {
    "atomicNumber": "40",
    "symbol": "Zr",
    "name": "Цирконий",
    "wikiLink": "/wiki/%D0%A6%D0%B8%D1%80%D0%BA%D0%BE%D0%BD%D0%B8%D0%B9",
    "yearDiscovered": 1789,
    "meltingPoint": 1852,
    "boilingPoint": 4377
  },
  {
    "atomicNumber": "41",
    "symbol": "Nb",
    "name": "Ниобий",
    "wikiLink": "/wiki/%D0%9D%D0%B8%D0%BE%D0%B1%D0%B8%D0%B9",
    "yearDiscovered": 1801,
    "meltingPoint": 2468,
    "boilingPoint": 4927
  },
  {
    "atomicNumber": "42",
    "symbol": "Mo",
    "name": "Молибден",
    "wikiLink": "/wiki/%D0%9C%D0%BE%D0%BB%D0%B8%D0%B1%D0%B4%D0%B5%D0%BD",
    "yearDiscovered": 1778,
    "meltingPoint": 2617,
    "boilingPoint": 5560
  },
  {
    "atomicNumber": "43",
    "symbol": "Tc",
    "name": "Технеций",
    "wikiLink": "/wiki/%D0%A2%D0%B5%D1%85%D0%BD%D0%B5%D1%86%D0%B8%D0%B9",
    "yearDiscovered": 1937,
    "meltingPoint": 2172,
    "boilingPoint": 5030
  },
  {
    "atomicNumber": "44",
    "symbol": "Ru",
    "name": "Рутений",
    "wikiLink": "/wiki/%D0%A0%D1%83%D1%82%D0%B5%D0%BD%D0%B8%D0%B9",
    "yearDiscovered": 1844,
    "meltingPoint": 2310,
    "boilingPoint": 3900
  },
  {
    "atomicNumber": "45",
    "symbol": "Rh",
    "name": "Родий",
    "wikiLink": "/wiki/%D0%A0%D0%BE%D0%B4%D0%B8%D0%B9",
    "yearDiscovered": 1803,
    "meltingPoint": 1966,
    "boilingPoint": 3727
  },
  {
    "atomicNumber": "46",
    "symbol": "Pd",
    "name": "Палладий",
    "wikiLink": "/wiki/%D0%9F%D0%B0%D0%BB%D0%BB%D0%B0%D0%B4%D0%B8%D0%B9_(%D1%8D%D0%BB%D0%B5%D0%BC%D0%B5%D0%BD%D1%82)",
    "yearDiscovered": 1803,
    "meltingPoint": 1552,
    "boilingPoint": 3140
  },
  {
    "atomicNumber": "47",
    "symbol": "Ag",
    "name": "Серебро",
    "wikiLink": "/wiki/%D0%A1%D0%B5%D1%80%D0%B5%D0%B1%D1%80%D0%BE",
    "yearDiscovered": 0,
    "meltingPoint": 961,
    "boilingPoint": 2212
  },
  {
    "atomicNumber": "48",
    "symbol": "Cd",
    "name": "Кадмий",
    "wikiLink": "/wiki/%D0%9A%D0%B0%D0%B4%D0%BC%D0%B8%D0%B9",
    "yearDiscovered": 1817,
    "meltingPoint": 321,
    "boilingPoint": 765
  },
  {
    "atomicNumber": "49",
    "symbol": "In",
    "name": "Индий",
    "wikiLink": "/wiki/%D0%98%D0%BD%D0%B4%D0%B8%D0%B9",
    "yearDiscovered": 1863,
    "meltingPoint": 156,
    "boilingPoint": 2080
  },
  {
    "atomicNumber": "50",
    "symbol": "Sn",
    "name": "Олово",
    "wikiLink": "/wiki/%D0%9E%D0%BB%D0%BE%D0%B2%D0%BE",
    "yearDiscovered": 0,
    "meltingPoint": 232,
    "boilingPoint": 2270
  },
  {
    "atomicNumber": "51",
    "symbol": "Sb",
    "name": "Сурьма",
    "wikiLink": "/wiki/%D0%A1%D1%83%D1%80%D1%8C%D0%BC%D0%B0",
    "yearDiscovered": 0,
    "meltingPoint": 630,
    "boilingPoint": 1750
  },
  {
    "atomicNumber": "52",
    "symbol": "Te",
    "name": "Теллур",
    "wikiLink": "/wiki/%D0%A2%D0%B5%D0%BB%D0%BB%D1%83%D1%80",
    "yearDiscovered": 1782,
    "meltingPoint": 449,
    "boilingPoint": 990
  },
  {
    "atomicNumber": "53",
    "symbol": "I",
    "name": "Иод",
    "wikiLink": "/wiki/%D0%98%D0%BE%D0%B4",
    "yearDiscovered": 1811,
    "meltingPoint": 113,
    "boilingPoint": 184
  },
  {
    "atomicNumber": "54",
    "symbol": "Xe",
    "name": "Ксенон",
    "wikiLink": "/wiki/%D0%9A%D1%81%D0%B5%D0%BD%D0%BE%D0%BD",
    "yearDiscovered": 1898,
    "meltingPoint": -111,
    "boilingPoint": -107
  },
  {
    "atomicNumber": "55",
    "symbol": "Cs",
    "name": "Цезий",
    "wikiLink": "/wiki/%D0%A6%D0%B5%D0%B7%D0%B8%D0%B9",
    "yearDiscovered": 1860,
    "meltingPoint": 28,
    "boilingPoint": 690
  },
  {
    "atomicNumber": "56",
    "symbol": "Ba",
    "name": "Барий",
    "wikiLink": "/wiki/%D0%91%D0%B0%D1%80%D0%B8%D0%B9",
    "yearDiscovered": 1808,
    "meltingPoint": 725,
    "boilingPoint": 1640
  },
  {
    "atomicNumber": "57",
    "symbol": "La",
    "name": "Лантан",
    "wikiLink": "/wiki/%D0%9B%D0%B0%D0%BD%D1%82%D0%B0%D0%BD",
    "yearDiscovered": 1839,
    "meltingPoint": 920,
    "boilingPoint": 3454
  },
  {
    "atomicNumber": "58",
    "symbol": "Ce",
    "name": "Церий",
    "wikiLink": "/wiki/%D0%A6%D0%B5%D1%80%D0%B8%D0%B9",
    "yearDiscovered": 1803,
    "meltingPoint": 798,
    "boilingPoint": 3257
  },
  {
    "atomicNumber": "59",
    "symbol": "Pr",
    "name": "Празеодим",
    "wikiLink": "/wiki/%D0%9F%D1%80%D0%B0%D0%B7%D0%B5%D0%BE%D0%B4%D0%B8%D0%BC",
    "yearDiscovered": 1895,
    "meltingPoint": 931,
    "boilingPoint": 3212
  },
  {
    "atomicNumber": "60",
    "symbol": "Nd",
    "name": "Неодим",
    "wikiLink": "/wiki/%D0%9D%D0%B5%D0%BE%D0%B4%D0%B8%D0%BC",
    "yearDiscovered": 1895,
    "meltingPoint": 1010,
    "boilingPoint": 3127
  },
  {
    "atomicNumber": "61",
    "symbol": "Pm",
    "name": "Прометий",
    "wikiLink": "/wiki/%D0%9F%D1%80%D0%BE%D0%BC%D0%B5%D1%82%D0%B8%D0%B9",
    "yearDiscovered": 1945,
    "meltingPoint": 1080,
    "boilingPoint": 2730
  },
  {
    "atomicNumber": "62",
    "symbol": "Sm",
    "name": "Самарий",
    "wikiLink": "/wiki/%D0%A1%D0%B0%D0%BC%D0%B0%D1%80%D0%B8%D0%B9",
    "yearDiscovered": 1879,
    "meltingPoint": 1072,
    "boilingPoint": 1778
  },
  {
    "atomicNumber": "63",
    "symbol": "Eu",
    "name": "Европий",
    "wikiLink": "/wiki/%D0%95%D0%B2%D1%80%D0%BE%D0%BF%D0%B8%D0%B9",
    "yearDiscovered": 1901,
    "meltingPoint": 822,
    "boilingPoint": 1597
  },
  {
    "atomicNumber": "64",
    "symbol": "Gd",
    "name": "Гадолиний",
    "wikiLink": "/wiki/%D0%93%D0%B0%D0%B4%D0%BE%D0%BB%D0%B8%D0%BD%D0%B8%D0%B9",
    "yearDiscovered": 1880,
    "meltingPoint": 1311,
    "boilingPoint": 3233
  },
  {
    "atomicNumber": "65",
    "symbol": "Tb",
    "name": "Тербий",
    "wikiLink": "/wiki/%D0%A2%D0%B5%D1%80%D0%B1%D0%B8%D0%B9",
    "yearDiscovered": 1843,
    "meltingPoint": 1360,
    "boilingPoint": 3041
  },
  {
    "atomicNumber": "66",
    "symbol": "Dy",
    "name": "Диспрозий",
    "wikiLink": "/wiki/%D0%94%D0%B8%D1%81%D0%BF%D1%80%D0%BE%D0%B7%D0%B8%D0%B9",
    "yearDiscovered": 1886,
    "meltingPoint": 1409,
    "boilingPoint": 2335
  },
  {
    "atomicNumber": "67",
    "symbol": "Ho",
    "name": "Гольмий",
    "wikiLink": "/wiki/%D0%93%D0%BE%D0%BB%D1%8C%D0%BC%D0%B8%D0%B9",
    "yearDiscovered": 1878,
    "meltingPoint": 1470,
    "boilingPoint": 2720
  },
  {
    "atomicNumber": "68",
    "symbol": "Er",
    "name": "Эрбий",
    "wikiLink": "/wiki/%D0%AD%D1%80%D0%B1%D0%B8%D0%B9",
    "yearDiscovered": 1842,
    "meltingPoint": 1522,
    "boilingPoint": 2510
  },
  {
    "atomicNumber": "69",
    "symbol": "Tm",
    "name": "Тулий",
    "wikiLink": "/wiki/%D0%A2%D1%83%D0%BB%D0%B8%D0%B9",
    "yearDiscovered": 1879,
    "meltingPoint": 1545,
    "boilingPoint": 1727
  },
  {
    "atomicNumber": "70",
    "symbol": "Yb",
    "name": "Иттербий",
    "wikiLink": "/wiki/%D0%98%D1%82%D1%82%D0%B5%D1%80%D0%B1%D0%B8%D0%B9",
    "yearDiscovered": 1878,
    "meltingPoint": 824,
    "boilingPoint": 1193
  },
  {
    "atomicNumber": "71",
    "symbol": "Lu",
    "name": "Лютеций",
    "wikiLink": "/wiki/%D0%9B%D1%8E%D1%82%D0%B5%D1%86%D0%B8%D0%B9",
    "yearDiscovered": 1907,
    "meltingPoint": 1656,
    "boilingPoint": 3315
  },
  {
    "atomicNumber": "72",
    "symbol": "Hf",
    "name": "Гафний",
    "wikiLink": "/wiki/%D0%93%D0%B0%D1%84%D0%BD%D0%B8%D0%B9",
    "yearDiscovered": 1923,
    "meltingPoint": 2150,
    "boilingPoint": 5400
  },
  {
    "atomicNumber": "73",
    "symbol": "Ta",
    "name": "Тантал",
    "wikiLink": "/wiki/%D0%A2%D0%B0%D0%BD%D1%82%D0%B0%D0%BB_(%D1%8D%D0%BB%D0%B5%D0%BC%D0%B5%D0%BD%D1%82)",
    "yearDiscovered": 1802,
    "meltingPoint": 2996,
    "boilingPoint": 5425
  },
  {
    "atomicNumber": "74",
    "symbol": "W",
    "name": "Вольфрам",
    "wikiLink": "/wiki/%D0%92%D0%BE%D0%BB%D1%8C%D1%84%D1%80%D0%B0%D0%BC",
    "yearDiscovered": 1783,
    "meltingPoint": 3407,
    "boilingPoint": 5927
  },
  {
    "atomicNumber": "75",
    "symbol": "Re",
    "name": "Рений",
    "wikiLink": "/wiki/%D0%A0%D0%B5%D0%BD%D0%B8%D0%B9",
    "yearDiscovered": 1925,
    "meltingPoint": 3180,
    "boilingPoint": 5873
  },
  {
    "atomicNumber": "76",
    "symbol": "Os",
    "name": "Осмий",
    "wikiLink": "/wiki/%D0%9E%D1%81%D0%BC%D0%B8%D0%B9",
    "yearDiscovered": 1803,
    "meltingPoint": 3045,
    "boilingPoint": 5027
  },
  {
    "atomicNumber": "77",
    "symbol": "Ir",
    "name": "Иридий",
    "wikiLink": "/wiki/%D0%98%D1%80%D0%B8%D0%B4%D0%B8%D0%B9",
    "yearDiscovered": 1803,
    "meltingPoint": 2410,
    "boilingPoint": 4130
  },
  {
    "atomicNumber": "78",
    "symbol": "Pt",
    "name": "Платина",
    "wikiLink": "/wiki/%D0%9F%D0%BB%D0%B0%D1%82%D0%B8%D0%BD%D0%B0",
    "yearDiscovered": 1557,
    "meltingPoint": 1772,
    "boilingPoint": 3827
  },
  {
    "atomicNumber": "79",
    "symbol": "Au",
    "name": "Золото",
    "wikiLink": "/wiki/%D0%97%D0%BE%D0%BB%D0%BE%D1%82%D0%BE",
    "yearDiscovered": 0,
    "meltingPoint": 1064,
    "boilingPoint": 2940
  },
  {
    "atomicNumber": "80",
    "symbol": "Hg",
    "name": "Ртуть",
    "wikiLink": "/wiki/%D0%A0%D1%82%D1%83%D1%82%D1%8C",
    "yearDiscovered": 0,
    "meltingPoint": -38,
    "boilingPoint": 356
  },
  {
    "atomicNumber": "81",
    "symbol": "Tl",
    "name": "Таллий",
    "wikiLink": "/wiki/%D0%A2%D0%B0%D0%BB%D0%BB%D0%B8%D0%B9",
    "yearDiscovered": 1861,
    "meltingPoint": 303,
    "boilingPoint": 1457
  },
  {
    "atomicNumber": "82",
    "symbol": "Pb",
    "name": "Свинец",
    "wikiLink": "/wiki/%D0%A1%D0%B2%D0%B8%D0%BD%D0%B5%D1%86",
    "yearDiscovered": 0,
    "meltingPoint": 327,
    "boilingPoint": 1740
  },
  {
    "atomicNumber": "83",
    "symbol": "Bi",
    "name": "Висмут",
    "wikiLink": "/wiki/%D0%92%D0%B8%D1%81%D0%BC%D1%83%D1%82",
    "yearDiscovered": 1753,
    "meltingPoint": 271,
    "boilingPoint": 1560
  },
  {
    "atomicNumber": "84",
    "symbol": "Po",
    "name": "Полоний",
    "wikiLink": "/wiki/%D0%9F%D0%BE%D0%BB%D0%BE%D0%BD%D0%B8%D0%B9",
    "yearDiscovered": 1898,
    "meltingPoint": 254,
    "boilingPoint": 962
  },
  {
    "atomicNumber": "85",
    "symbol": "At",
    "name": "Астат",
    "wikiLink": "/wiki/%D0%90%D1%81%D1%82%D0%B0%D1%82",
    "yearDiscovered": 1940,
    "meltingPoint": 302,
    "boilingPoint": 337
  },
  {
    "atomicNumber": "86",
    "symbol": "Rn",
    "name": "Радон",
    "wikiLink": "/wiki/%D0%A0%D0%B0%D0%B4%D0%BE%D0%BD",
    "yearDiscovered": 1900,
    "meltingPoint": -71,
    "boilingPoint": -61
  },
  {
    "atomicNumber": "87",
    "symbol": "Fr",
    "name": "Франций",
    "wikiLink": "/wiki/%D0%A4%D1%80%D0%B0%D0%BD%D1%86%D0%B8%D0%B9",
    "yearDiscovered": 1939,
    "meltingPoint": 27,
    "boilingPoint": 677
  },
  {
    "atomicNumber": "88",
    "symbol": "Ra",
    "name": "Радий",
    "wikiLink": "/wiki/%D0%A0%D0%B0%D0%B4%D0%B8%D0%B9",
    "yearDiscovered": 1898,
    "meltingPoint": 700,
    "boilingPoint": 1140
  },
  {
    "atomicNumber": "89",
    "symbol": "Ac",
    "name": "Актиний",
    "wikiLink": "/wiki/%D0%90%D0%BA%D1%82%D0%B8%D0%BD%D0%B8%D0%B9",
    "yearDiscovered": 1899,
    "meltingPoint": 1047,
    "boilingPoint": 3197
  },
  {
    "atomicNumber": "90",
    "symbol": "Th",
    "name": "Торий",
    "wikiLink": "/wiki/%D0%A2%D0%BE%D1%80%D0%B8%D0%B9",
    "yearDiscovered": 1829,
    "meltingPoint": 1750,
    "boilingPoint": 4787
  },
  {
    "atomicNumber": "91",
    "symbol": "Pa",
    "name": "Протактиний",
    "wikiLink": "/wiki/%D0%9F%D1%80%D0%BE%D1%82%D0%B0%D0%BA%D1%82%D0%B8%D0%BD%D0%B8%D0%B9",
    "yearDiscovered": 1917,
    "meltingPoint": 1554,
    "boilingPoint": 4030
  },
  {
    "atomicNumber": "92",
    "symbol": "U",
    "name": "Уран",
    "wikiLink": "/wiki/%D0%A3%D1%80%D0%B0%D0%BD_(%D1%8D%D0%BB%D0%B5%D0%BC%D0%B5%D0%BD%D1%82)",
    "yearDiscovered": 1789,
    "meltingPoint": 1132,
    "boilingPoint": 3818
  },
  {
    "atomicNumber": "93",
    "symbol": "Np",
    "name": "Нептуний",
    "wikiLink": "/wiki/%D0%9D%D0%B5%D0%BF%D1%82%D1%83%D0%BD%D0%B8%D0%B9",
    "yearDiscovered": 1940,
    "meltingPoint": 640,
    "boilingPoint": 3902
  },
  {
    "atomicNumber": "94",
    "symbol": "Pu",
    "name": "Плутоний",
    "wikiLink": "/wiki/%D0%9F%D0%BB%D1%83%D1%82%D0%BE%D0%BD%D0%B8%D0%B9",
    "yearDiscovered": 1940,
    "meltingPoint": 641,
    "boilingPoint": 3327
  },
  {
    "atomicNumber": "95",
    "symbol": "Am",
    "name": "Америций",
    "wikiLink": "/wiki/%D0%90%D0%BC%D0%B5%D1%80%D0%B8%D1%86%D0%B8%D0%B9",
    "yearDiscovered": 1944,
    "meltingPoint": 994,
    "boilingPoint": 2607
  },
  {
    "atomicNumber": "96",
    "symbol": "Cm",
    "name": "Кюрий",
    "wikiLink": "/wiki/%D0%9A%D1%8E%D1%80%D0%B8%D0%B9",
    "yearDiscovered": 1944,
    "meltingPoint": 1340,
    "boilingPoint": 0
  },
  {
    "atomicNumber": "97",
    "symbol": "Bk",
    "name": "Берклий",
    "wikiLink": "/wiki/%D0%91%D0%B5%D1%80%D0%BA%D0%BB%D0%B8%D0%B9",
    "yearDiscovered": 1949,
    "meltingPoint": 986,
    "boilingPoint": 0
  },
  {
    "atomicNumber": "98",
    "symbol": "Cf",
    "name": "Калифорний",
    "wikiLink": "/wiki/%D0%9A%D0%B0%D0%BB%D0%B8%D1%84%D0%BE%D1%80%D0%BD%D0%B8%D0%B9",
    "yearDiscovered": 1950,
    "meltingPoint": 900,
    "boilingPoint": 0
  },
  {
    "atomicNumber": "99",
    "symbol": "Es",
    "name": "Эйнштейний",
    "wikiLink": "/wiki/%D0%AD%D0%B9%D0%BD%D1%88%D1%82%D0%B5%D0%B9%D0%BD%D0%B8%D0%B9",
    "yearDiscovered": 1952,
    "meltingPoint": 860,
    "boilingPoint": 0
  },
  {
    "atomicNumber": "100",
    "symbol": "Fm",
    "name": "Фермий",
    "wikiLink": "/wiki/%D0%A4%D0%B5%D1%80%D0%BC%D0%B8%D0%B9",
    "yearDiscovered": 1952,
    "meltingPoint": 0,
    "boilingPoint": 0
  },
  {
    "atomicNumber": "101",
    "symbol": "Md",
    "name": "Менделевий",
    "wikiLink": "/wiki/%D0%9C%D0%B5%D0%BD%D0%B4%D0%B5%D0%BB%D0%B5%D0%B2%D0%B8%D0%B9",
    "yearDiscovered": 1955,
    "meltingPoint": 0,
    "boilingPoint": 0
  },
  {
    "atomicNumber": "102",
    "symbol": "No",
    "name": "Нобелий",
    "wikiLink": "/wiki/%D0%9D%D0%BE%D0%B1%D0%B5%D0%BB%D0%B8%D0%B9",
    "yearDiscovered": 1965,
    "meltingPoint": 0,
    "boilingPoint": 0
  },
  {
    "atomicNumber": "103",
    "symbol": "Lr",
    "name": "Лоуренсий",
    "wikiLink": "/wiki/%D0%9B%D0%BE%D1%83%D1%80%D0%B5%D0%BD%D1%81%D0%B8%D0%B9",
    "yearDiscovered": 1961,
    "meltingPoint": 0,
    "boilingPoint": 0
  },
  {
    "atomicNumber": "104",
    "symbol": "Rf",
    "name": "Резерфордий",
    "wikiLink": "/wiki/%D0%A0%D0%B5%D0%B7%D0%B5%D1%80%D1%84%D0%BE%D1%80%D0%B4%D0%B8%D0%B9",
    "yearDiscovered": 1964,
    "meltingPoint": 0,
    "boilingPoint": 0
  },
  {
    "atomicNumber": "105",
    "symbol": "Db",
    "name": "Дубний",
    "wikiLink": "/wiki/%D0%94%D1%83%D0%B1%D0%BD%D0%B8%D0%B9",
    "yearDiscovered": 1967,
    "meltingPoint": 0,
    "boilingPoint": 0
  },
  {
    "atomicNumber": "106",
    "symbol": "Sg",
    "name": "Сиборгий",
    "wikiLink": "/wiki/%D0%A1%D0%B8%D0%B1%D0%BE%D1%80%D0%B3%D0%B8%D0%B9",
    "yearDiscovered": 1974,
    "meltingPoint": 0,
    "boilingPoint": 0
  },
  {
    "atomicNumber": "107",
    "symbol": "Bh",
    "name": "Борий",
    "wikiLink": "/wiki/%D0%91%D0%BE%D1%80%D0%B8%D0%B9",
    "yearDiscovered": 1976,
    "meltingPoint": 0,
    "boilingPoint": 0
  },
  {
    "atomicNumber": "108",
    "symbol": "Hs",
    "name": "Хассий",
    "wikiLink": "/wiki/%D0%A5%D0%B0%D1%81%D1%81%D0%B8%D0%B9",
    "yearDiscovered": 1984,
    "meltingPoint": 0,
    "boilingPoint": 0
  },
  {
    "atomicNumber": "109",
    "symbol": "Mt",
    "name": "Мейтнерий",
    "wikiLink": "/wiki/%D0%9C%D0%B5%D0%B9%D1%82%D0%BD%D0%B5%D1%80%D0%B8%D0%B9",
    "yearDiscovered": 1982,
    "meltingPoint": 0,
    "boilingPoint": 0
  },
  {
    "atomicNumber": "110",
    "symbol": "Ds",
    "name": "Дармштадтий",
    "wikiLink": "/wiki/%D0%94%D0%B0%D1%80%D0%BC%D1%88%D1%82%D0%B0%D0%B4%D1%82%D0%B8%D0%B9",
    "yearDiscovered": 1994,
    "meltingPoint": 0,
    "boilingPoint": 0
  },
  {
    "atomicNumber": "111",
    "symbol": "Rg",
    "name": "Рентгений",
    "wikiLink": "/wiki/%D0%A0%D0%B5%D0%BD%D1%82%D0%B3%D0%B5%D0%BD%D0%B8%D0%B9",
    "yearDiscovered": 1994,
    "meltingPoint": 0,
    "boilingPoint": 0
  },
  {
    "atomicNumber": "112",
    "symbol": "Cn",
    "name": "Коперниций",
    "wikiLink": "/wiki/%D0%9A%D0%BE%D0%BF%D0%B5%D1%80%D0%BD%D0%B8%D1%86%D0%B8%D0%B9",
    "yearDiscovered": 1996,
    "meltingPoint": 0,
    "boilingPoint": 0
  },
  {
    "atomicNumber": "113",
    "symbol": "Nh",
    "name": "Нихоний",
    "wikiLink": "/wiki/%D0%9D%D0%B8%D1%85%D0%BE%D0%BD%D0%B8%D0%B9",
    "yearDiscovered": 2004,
    "meltingPoint": 0,
    "boilingPoint": 0
  },
  {
    "atomicNumber": "114",
    "symbol": "Fl",
    "name": "Флеровий",
    "wikiLink": "/wiki/%D0%A4%D0%BB%D0%B5%D1%80%D0%BE%D0%B2%D0%B8%D0%B9",
    "yearDiscovered": 1999,
    "meltingPoint": 0,
    "boilingPoint": 0
  },
  {
    "atomicNumber": "115",
    "symbol": "Mc",
    "name": "Московий",
    "wikiLink": "/wiki/%D0%9C%D0%BE%D1%81%D0%BA%D0%BE%D0%B2%D0%B8%D0%B9",
    "yearDiscovered": 2004,
    "meltingPoint": 0,
    "boilingPoint": 0
  },
  {
    "atomicNumber": "116",
    "symbol": "Lv",
    "name": "Ливерморий",
    "wikiLink": "/wiki/%D0%9B%D0%B8%D0%B2%D0%B5%D1%80%D0%BC%D0%BE%D1%80%D0%B8%D0%B9",
    "yearDiscovered": 2000,
    "meltingPoint": 0,
    "boilingPoint": 0
  },
  {
    "atomicNumber": "117",
    "symbol": "Ts",
    "name": "Теннессин",
    "wikiLink": "/wiki/%D0%A2%D0%B5%D0%BD%D0%BD%D0%B5%D1%81%D1%81%D0%B8%D0%BD",
    "yearDiscovered": 2010,
    "meltingPoint": 0,
    "boilingPoint": 0
  },
  {
    "atomicNumber": "118",
    "symbol": "Og",
    "name": "Оганесон",
    "wikiLink": "/wiki/%D0%9E%D0%B3%D0%B0%D0%BD%D0%B5%D1%81%D0%BE%D0%BD",
    "yearDiscovered": 2004,
    "meltingPoint": 0,
    "boilingPoint": 0
  },
  {
    "atomicNumber": "57-71",
    "symbol": "",
    "name": "Лантаноиды",
    "wikiLink": "/wiki/%D0%90%D0%BA%D1%82%D0%B8%D0%BD%D0%BE%D0%B8%D0%B4%D1%8B",
    "yearDiscovered": 1803
  },
  {
    "atomicNumber": "89-103",
    "symbol": "",
    "name": "Актиноиды",
    "wikiLink": "/wiki/%D0%9B%D0%B0%D0%BD%D1%82%D0%B0%D0%BD%D0%BE%D0%B8%D0%B4%D1%8B",
    "yearDiscovered": 1789
  }
];